<VTKFile type="UnstructuredGrid" version="0.1" byte_order="BigEndian">
  <UnstructuredGrid>
    <Piece NumberOfPoints="625" NumberOfCells="2304">
      <PointData>
        <DataArray type="Float64" Name="position" NumberOfComponents="3" format="ascii">
0 0 0
0.0208333 0 0
0.0416667 0 0
0.0625 0 0
0.0833333 0 0
0.104167 0 0
0.125 0 0
0.145833 0 0
0.166667 0 0
0.1875 0 0
0.208333 0 0
0.229167 0 0
0.25 0 0
0.270833 0 0
0.291667 0 0
0.3125 0 0
0.333333 0 0
0.354167 0 0
0.375 0 0
0.395833 0 0
0.416667 0 0
0.4375 0 0
0.458333 0 0
0.479167 0 0
0.5 0 0
0 0.025 0
0.0208333 0.025 0
0.0416667 0.025 0
0.0625 0.025 0
0.0833333 0.025 0
0.104167 0.025 0
0.125 0.025 0
0.145833 0.025 0
0.166667 0.025 0
0.1875 0.025 0
0.208333 0.025 0
0.229167 0.025 0
0.25 0.025 0
0.270833 0.025 0
0.291667 0.025 0
0.3125 0.025 0
0.333333 0.025 0
0.354167 0.025 0
0.375 0.025 0
0.395833 0.025 0
0.416667 0.025 0
0.4375 0.025 0
0.458333 0.025 0
0.479167 0.025 0
0.5 0.025 0
0 0.05 0
0.0208333 0.05 0
0.0416667 0.05 0
0.0625 0.05 0
0.0833333 0.05 0
0.104167 0.05 0
0.125 0.05 0
0.145833 0.05 0
0.166667 0.05 0
0.1875 0.05 0
0.208333 0.05 0
0.229167 0.05 0
0.25 0.05 0
0.270833 0.05 0
0.291667 0.05 0
0.3125 0.05 0
0.333333 0.05 0
0.354167 0.05 0
0.375 0.05 0
0.395833 0.05 0
0.416667 0.05 0
0.4375 0.05 0
0.458333 0.05 0
0.479167 0.05 0
0.5 0.05 0
0 0.075 0
0.0208333 0.075 0
0.0416667 0.075 0
0.0625 0.075 0
0.0833333 0.075 0
0.104167 0.075 0
0.125 0.075 0
0.145833 0.075 0
0.166667 0.075 0
0.1875 0.075 0
0.208333 0.075 0
0.229167 0.075 0
0.25 0.075 0
0.270833 0.075 0
0.291667 0.075 0
0.3125 0.075 0
0.333333 0.075 0
0.354167 0.075 0
0.375 0.075 0
0.395833 0.075 0
0.416667 0.075 0
0.4375 0.075 0
0.458333 0.075 0
0.479167 0.075 0
0.5 0.075 0
0 0.1 0
0.0208333 0.1 0
0.0416667 0.1 0
0.0625 0.1 0
0.0833333 0.1 0
0.104167 0.1 0
0.125 0.1 0
0.145833 0.1 0
0.166667 0.1 0
0.1875 0.1 0
0.208333 0.1 0
0.229167 0.1 0
0.25 0.1 0
0.270833 0.1 0
0.291667 0.1 0
0.3125 0.1 0
0.333333 0.1 0
0.354167 0.1 0
0.375 0.1 0
0.395833 0.1 0
0.416667 0.1 0
0.4375 0.1 0
0.458333 0.1 0
0.479167 0.1 0
0.5 0.1 0
0 0 0.025
0.0208333 0 0.025
0.0416667 0 0.025
0.0625 0 0.025
0.0833333 0 0.025
0.104167 0 0.025
0.125 0 0.025
0.145833 0 0.025
0.166667 0 0.025
0.1875 0 0.025
0.208333 0 0.025
0.229167 0 0.025
0.25 0 0.025
0.270833 0 0.025
0.291667 0 0.025
0.3125 0 0.025
0.333333 0 0.025
0.354167 0 0.025
0.375 0 0.025
0.395833 0 0.025
0.416667 0 0.025
0.4375 0 0.025
0.458333 0 0.025
0.479167 0 0.025
0.5 0 0.025
0 0.025 0.025
0.0208333 0.025 0.025
0.0416667 0.025 0.025
0.0625 0.025 0.025
0.0833333 0.025 0.025
0.104167 0.025 0.025
0.125 0.025 0.025
0.145833 0.025 0.025
0.166667 0.025 0.025
0.1875 0.025 0.025
0.208333 0.025 0.025
0.229167 0.025 0.025
0.25 0.025 0.025
0.270833 0.025 0.025
0.291667 0.025 0.025
0.3125 0.025 0.025
0.333333 0.025 0.025
0.354167 0.025 0.025
0.375 0.025 0.025
0.395833 0.025 0.025
0.416667 0.025 0.025
0.4375 0.025 0.025
0.458333 0.025 0.025
0.479167 0.025 0.025
0.5 0.025 0.025
0 0.05 0.025
0.0208333 0.05 0.025
0.0416667 0.05 0.025
0.0625 0.05 0.025
0.0833333 0.05 0.025
0.104167 0.05 0.025
0.125 0.05 0.025
0.145833 0.05 0.025
0.166667 0.05 0.025
0.1875 0.05 0.025
0.208333 0.05 0.025
0.229167 0.05 0.025
0.25 0.05 0.025
0.270833 0.05 0.025
0.291667 0.05 0.025
0.3125 0.05 0.025
0.333333 0.05 0.025
0.354167 0.05 0.025
0.375 0.05 0.025
0.395833 0.05 0.025
0.416667 0.05 0.025
0.4375 0.05 0.025
0.458333 0.05 0.025
0.479167 0.05 0.025
0.5 0.05 0.025
0 0.075 0.025
0.0208333 0.075 0.025
0.0416667 0.075 0.025
0.0625 0.075 0.025
0.0833333 0.075 0.025
0.104167 0.075 0.025
0.125 0.075 0.025
0.145833 0.075 0.025
0.166667 0.075 0.025
0.1875 0.075 0.025
0.208333 0.075 0.025
0.229167 0.075 0.025
0.25 0.075 0.025
0.270833 0.075 0.025
0.291667 0.075 0.025
0.3125 0.075 0.025
0.333333 0.075 0.025
0.354167 0.075 0.025
0.375 0.075 0.025
0.395833 0.075 0.025
0.416667 0.075 0.025
0.4375 0.075 0.025
0.458333 0.075 0.025
0.479167 0.075 0.025
0.5 0.075 0.025
0 0.1 0.025
0.0208333 0.1 0.025
0.0416667 0.1 0.025
0.0625 0.1 0.025
0.0833333 0.1 0.025
0.104167 0.1 0.025
0.125 0.1 0.025
0.145833 0.1 0.025
0.166667 0.1 0.025
0.1875 0.1 0.025
0.208333 0.1 0.025
0.229167 0.1 0.025
0.25 0.1 0.025
0.270833 0.1 0.025
0.291667 0.1 0.025
0.3125 0.1 0.025
0.333333 0.1 0.025
0.354167 0.1 0.025
0.375 0.1 0.025
0.395833 0.1 0.025
0.416667 0.1 0.025
0.4375 0.1 0.025
0.458333 0.1 0.025
0.479167 0.1 0.025
0.5 0.1 0.025
0 0 0.05
0.0208333 0 0.05
0.0416667 0 0.05
0.0625 0 0.05
0.0833333 0 0.05
0.104167 0 0.05
0.125 0 0.05
0.145833 0 0.05
0.166667 0 0.05
0.1875 0 0.05
0.208333 0 0.05
0.229167 0 0.05
0.25 0 0.05
0.270833 0 0.05
0.291667 0 0.05
0.3125 0 0.05
0.333333 0 0.05
0.354167 0 0.05
0.375 0 0.05
0.395833 0 0.05
0.416667 0 0.05
0.4375 0 0.05
0.458333 0 0.05
0.479167 0 0.05
0.5 0 0.05
0 0.025 0.05
0.0208333 0.025 0.05
0.0416667 0.025 0.05
0.0625 0.025 0.05
0.0833333 0.025 0.05
0.104167 0.025 0.05
0.125 0.025 0.05
0.145833 0.025 0.05
0.166667 0.025 0.05
0.1875 0.025 0.05
0.208333 0.025 0.05
0.229167 0.025 0.05
0.25 0.025 0.05
0.270833 0.025 0.05
0.291667 0.025 0.05
0.3125 0.025 0.05
0.333333 0.025 0.05
0.354167 0.025 0.05
0.375 0.025 0.05
0.395833 0.025 0.05
0.416667 0.025 0.05
0.4375 0.025 0.05
0.458333 0.025 0.05
0.479167 0.025 0.05
0.5 0.025 0.05
0 0.05 0.05
0.0208333 0.05 0.05
0.0416667 0.05 0.05
0.0625 0.05 0.05
0.0833333 0.05 0.05
0.104167 0.05 0.05
0.125 0.05 0.05
0.145833 0.05 0.05
0.166667 0.05 0.05
0.1875 0.05 0.05
0.208333 0.05 0.05
0.229167 0.05 0.05
0.25 0.05 0.05
0.270833 0.05 0.05
0.291667 0.05 0.05
0.3125 0.05 0.05
0.333333 0.05 0.05
0.354167 0.05 0.05
0.375 0.05 0.05
0.395833 0.05 0.05
0.416667 0.05 0.05
0.4375 0.05 0.05
0.458333 0.05 0.05
0.479167 0.05 0.05
0.5 0.05 0.05
0 0.075 0.05
0.0208333 0.075 0.05
0.0416667 0.075 0.05
0.0625 0.075 0.05
0.0833333 0.075 0.05
0.104167 0.075 0.05
0.125 0.075 0.05
0.145833 0.075 0.05
0.166667 0.075 0.05
0.1875 0.075 0.05
0.208333 0.075 0.05
0.229167 0.075 0.05
0.25 0.075 0.05
0.270833 0.075 0.05
0.291667 0.075 0.05
0.3125 0.075 0.05
0.333333 0.075 0.05
0.354167 0.075 0.05
0.375 0.075 0.05
0.395833 0.075 0.05
0.416667 0.075 0.05
0.4375 0.075 0.05
0.458333 0.075 0.05
0.479167 0.075 0.05
0.5 0.075 0.05
0 0.1 0.05
0.0208333 0.1 0.05
0.0416667 0.1 0.05
0.0625 0.1 0.05
0.0833333 0.1 0.05
0.104167 0.1 0.05
0.125 0.1 0.05
0.145833 0.1 0.05
0.166667 0.1 0.05
0.1875 0.1 0.05
0.208333 0.1 0.05
0.229167 0.1 0.05
0.25 0.1 0.05
0.270833 0.1 0.05
0.291667 0.1 0.05
0.3125 0.1 0.05
0.333333 0.1 0.05
0.354167 0.1 0.05
0.375 0.1 0.05
0.395833 0.1 0.05
0.416667 0.1 0.05
0.4375 0.1 0.05
0.458333 0.1 0.05
0.479167 0.1 0.05
0.5 0.1 0.05
0 0 0.075
0.0208333 0 0.075
0.0416667 0 0.075
0.0625 0 0.075
0.0833333 0 0.075
0.104167 0 0.075
0.125 0 0.075
0.145833 0 0.075
0.166667 0 0.075
0.1875 0 0.075
0.208333 0 0.075
0.229167 0 0.075
0.25 0 0.075
0.270833 0 0.075
0.291667 0 0.075
0.3125 0 0.075
0.333333 0 0.075
0.354167 0 0.075
0.375 0 0.075
0.395833 0 0.075
0.416667 0 0.075
0.4375 0 0.075
0.458333 0 0.075
0.479167 0 0.075
0.5 0 0.075
0 0.025 0.075
0.0208333 0.025 0.075
0.0416667 0.025 0.075
0.0625 0.025 0.075
0.0833333 0.025 0.075
0.104167 0.025 0.075
0.125 0.025 0.075
0.145833 0.025 0.075
0.166667 0.025 0.075
0.1875 0.025 0.075
0.208333 0.025 0.075
0.229167 0.025 0.075
0.25 0.025 0.075
0.270833 0.025 0.075
0.291667 0.025 0.075
0.3125 0.025 0.075
0.333333 0.025 0.075
0.354167 0.025 0.075
0.375 0.025 0.075
0.395833 0.025 0.075
0.416667 0.025 0.075
0.4375 0.025 0.075
0.458333 0.025 0.075
0.479167 0.025 0.075
0.5 0.025 0.075
0 0.05 0.075
0.0208333 0.05 0.075
0.0416667 0.05 0.075
0.0625 0.05 0.075
0.0833333 0.05 0.075
0.104167 0.05 0.075
0.125 0.05 0.075
0.145833 0.05 0.075
0.166667 0.05 0.075
0.1875 0.05 0.075
0.208333 0.05 0.075
0.229167 0.05 0.075
0.25 0.05 0.075
0.270833 0.05 0.075
0.291667 0.05 0.075
0.3125 0.05 0.075
0.333333 0.05 0.075
0.354167 0.05 0.075
0.375 0.05 0.075
0.395833 0.05 0.075
0.416667 0.05 0.075
0.4375 0.05 0.075
0.458333 0.05 0.075
0.479167 0.05 0.075
0.5 0.05 0.075
0 0.075 0.075
0.0208333 0.075 0.075
0.0416667 0.075 0.075
0.0625 0.075 0.075
0.0833333 0.075 0.075
0.104167 0.075 0.075
0.125 0.075 0.075
0.145833 0.075 0.075
0.166667 0.075 0.075
0.1875 0.075 0.075
0.208333 0.075 0.075
0.229167 0.075 0.075
0.25 0.075 0.075
0.270833 0.075 0.075
0.291667 0.075 0.075
0.3125 0.075 0.075
0.333333 0.075 0.075
0.354167 0.075 0.075
0.375 0.075 0.075
0.395833 0.075 0.075
0.416667 0.075 0.075
0.4375 0.075 0.075
0.458333 0.075 0.075
0.479167 0.075 0.075
0.5 0.075 0.075
0 0.1 0.075
0.0208333 0.1 0.075
0.0416667 0.1 0.075
0.0625 0.1 0.075
0.0833333 0.1 0.075
0.104167 0.1 0.075
0.125 0.1 0.075
0.145833 0.1 0.075
0.166667 0.1 0.075
0.1875 0.1 0.075
0.208333 0.1 0.075
0.229167 0.1 0.075
0.25 0.1 0.075
0.270833 0.1 0.075
0.291667 0.1 0.075
0.3125 0.1 0.075
0.333333 0.1 0.075
0.354167 0.1 0.075
0.375 0.1 0.075
0.395833 0.1 0.075
0.416667 0.1 0.075
0.4375 0.1 0.075
0.458333 0.1 0.075
0.479167 0.1 0.075
0.5 0.1 0.075
0 0 0.1
0.0208333 0 0.1
0.0416667 0 0.1
0.0625 0 0.1
0.0833333 0 0.1
0.104167 0 0.1
0.125 0 0.1
0.145833 0 0.1
0.166667 0 0.1
0.1875 0 0.1
0.208333 0 0.1
0.229167 0 0.1
0.25 0 0.1
0.270833 0 0.1
0.291667 0 0.1
0.3125 0 0.1
0.333333 0 0.1
0.354167 0 0.1
0.375 0 0.1
0.395833 0 0.1
0.416667 0 0.1
0.4375 0 0.1
0.458333 0 0.1
0.479167 0 0.1
0.5 0 0.1
0 0.025 0.1
0.0208333 0.025 0.1
0.0416667 0.025 0.1
0.0625 0.025 0.1
0.0833333 0.025 0.1
0.104167 0.025 0.1
0.125 0.025 0.1
0.145833 0.025 0.1
0.166667 0.025 0.1
0.1875 0.025 0.1
0.208333 0.025 0.1
0.229167 0.025 0.1
0.25 0.025 0.1
0.270833 0.025 0.1
0.291667 0.025 0.1
0.3125 0.025 0.1
0.333333 0.025 0.1
0.354167 0.025 0.1
0.375 0.025 0.1
0.395833 0.025 0.1
0.416667 0.025 0.1
0.4375 0.025 0.1
0.458333 0.025 0.1
0.479167 0.025 0.1
0.5 0.025 0.1
0 0.05 0.1
0.0208333 0.05 0.1
0.0416667 0.05 0.1
0.0625 0.05 0.1
0.0833333 0.05 0.1
0.104167 0.05 0.1
0.125 0.05 0.1
0.145833 0.05 0.1
0.166667 0.05 0.1
0.1875 0.05 0.1
0.208333 0.05 0.1
0.229167 0.05 0.1
0.25 0.05 0.1
0.270833 0.05 0.1
0.291667 0.05 0.1
0.3125 0.05 0.1
0.333333 0.05 0.1
0.354167 0.05 0.1
0.375 0.05 0.1
0.395833 0.05 0.1
0.416667 0.05 0.1
0.4375 0.05 0.1
0.458333 0.05 0.1
0.479167 0.05 0.1
0.5 0.05 0.1
0 0.075 0.1
0.0208333 0.075 0.1
0.0416667 0.075 0.1
0.0625 0.075 0.1
0.0833333 0.075 0.1
0.104167 0.075 0.1
0.125 0.075 0.1
0.145833 0.075 0.1
0.166667 0.075 0.1
0.1875 0.075 0.1
0.208333 0.075 0.1
0.229167 0.075 0.1
0.25 0.075 0.1
0.270833 0.075 0.1
0.291667 0.075 0.1
0.3125 0.075 0.1
0.333333 0.075 0.1
0.354167 0.075 0.1
0.375 0.075 0.1
0.395833 0.075 0.1
0.416667 0.075 0.1
0.4375 0.075 0.1
0.458333 0.075 0.1
0.479167 0.075 0.1
0.5 0.075 0.1
0 0.1 0.1
0.0208333 0.1 0.1
0.0416667 0.1 0.1
0.0625 0.1 0.1
0.0833333 0.1 0.1
0.104167 0.1 0.1
0.125 0.1 0.1
0.145833 0.1 0.1
0.166667 0.1 0.1
0.1875 0.1 0.1
0.208333 0.1 0.1
0.229167 0.1 0.1
0.25 0.1 0.1
0.270833 0.1 0.1
0.291667 0.1 0.1
0.3125 0.1 0.1
0.333333 0.1 0.1
0.354167 0.1 0.1
0.375 0.1 0.1
0.395833 0.1 0.1
0.416667 0.1 0.1
0.4375 0.1 0.1
0.458333 0.1 0.1
0.479167 0.1 0.1
0.5 0.1 0.1
        </DataArray>
      </PointData>
      <Points>
        <DataArray type="Float32" NumberOfComponents="3" format="ascii">
          0 0 0
          0.0208333 0 0
          0.0416667 0 0
          0.0625 0 0
          0.0833333 0 0
          0.104167 0 0
          0.125 0 0
          0.145833 0 0
          0.166667 0 0
          0.1875 0 0
          0.208333 0 0
          0.229167 0 0
          0.25 0 0
          0.270833 0 0
          0.291667 0 0
          0.3125 0 0
          0.333333 0 0
          0.354167 0 0
          0.375 0 0
          0.395833 0 0
          0.416667 0 0
          0.4375 0 0
          0.458333 0 0
          0.479167 0 0
          0.5 0 0
          0 0.025 0
          0.0208333 0.025 0
          0.0416667 0.025 0
          0.0625 0.025 0
          0.0833333 0.025 0
          0.104167 0.025 0
          0.125 0.025 0
          0.145833 0.025 0
          0.166667 0.025 0
          0.1875 0.025 0
          0.208333 0.025 0
          0.229167 0.025 0
          0.25 0.025 0
          0.270833 0.025 0
          0.291667 0.025 0
          0.3125 0.025 0
          0.333333 0.025 0
          0.354167 0.025 0
          0.375 0.025 0
          0.395833 0.025 0
          0.416667 0.025 0
          0.4375 0.025 0
          0.458333 0.025 0
          0.479167 0.025 0
          0.5 0.025 0
          0 0.05 0
          0.0208333 0.05 0
          0.0416667 0.05 0
          0.0625 0.05 0
          0.0833333 0.05 0
          0.104167 0.05 0
          0.125 0.05 0
          0.145833 0.05 0
          0.166667 0.05 0
          0.1875 0.05 0
          0.208333 0.05 0
          0.229167 0.05 0
          0.25 0.05 0
          0.270833 0.05 0
          0.291667 0.05 0
          0.3125 0.05 0
          0.333333 0.05 0
          0.354167 0.05 0
          0.375 0.05 0
          0.395833 0.05 0
          0.416667 0.05 0
          0.4375 0.05 0
          0.458333 0.05 0
          0.479167 0.05 0
          0.5 0.05 0
          0 0.075 0
          0.0208333 0.075 0
          0.0416667 0.075 0
          0.0625 0.075 0
          0.0833333 0.075 0
          0.104167 0.075 0
          0.125 0.075 0
          0.145833 0.075 0
          0.166667 0.075 0
          0.1875 0.075 0
          0.208333 0.075 0
          0.229167 0.075 0
          0.25 0.075 0
          0.270833 0.075 0
          0.291667 0.075 0
          0.3125 0.075 0
          0.333333 0.075 0
          0.354167 0.075 0
          0.375 0.075 0
          0.395833 0.075 0
          0.416667 0.075 0
          0.4375 0.075 0
          0.458333 0.075 0
          0.479167 0.075 0
          0.5 0.075 0
          0 0.1 0
          0.0208333 0.1 0
          0.0416667 0.1 0
          0.0625 0.1 0
          0.0833333 0.1 0
          0.104167 0.1 0
          0.125 0.1 0
          0.145833 0.1 0
          0.166667 0.1 0
          0.1875 0.1 0
          0.208333 0.1 0
          0.229167 0.1 0
          0.25 0.1 0
          0.270833 0.1 0
          0.291667 0.1 0
          0.3125 0.1 0
          0.333333 0.1 0
          0.354167 0.1 0
          0.375 0.1 0
          0.395833 0.1 0
          0.416667 0.1 0
          0.4375 0.1 0
          0.458333 0.1 0
          0.479167 0.1 0
          0.5 0.1 0
          0 0 0.025
          0.0208333 0 0.025
          0.0416667 0 0.025
          0.0625 0 0.025
          0.0833333 0 0.025
          0.104167 0 0.025
          0.125 0 0.025
          0.145833 0 0.025
          0.166667 0 0.025
          0.1875 0 0.025
          0.208333 0 0.025
          0.229167 0 0.025
          0.25 0 0.025
          0.270833 0 0.025
          0.291667 0 0.025
          0.3125 0 0.025
          0.333333 0 0.025
          0.354167 0 0.025
          0.375 0 0.025
          0.395833 0 0.025
          0.416667 0 0.025
          0.4375 0 0.025
          0.458333 0 0.025
          0.479167 0 0.025
          0.5 0 0.025
          0 0.025 0.025
          0.0208333 0.025 0.025
          0.0416667 0.025 0.025
          0.0625 0.025 0.025
          0.0833333 0.025 0.025
          0.104167 0.025 0.025
          0.125 0.025 0.025
          0.145833 0.025 0.025
          0.166667 0.025 0.025
          0.1875 0.025 0.025
          0.208333 0.025 0.025
          0.229167 0.025 0.025
          0.25 0.025 0.025
          0.270833 0.025 0.025
          0.291667 0.025 0.025
          0.3125 0.025 0.025
          0.333333 0.025 0.025
          0.354167 0.025 0.025
          0.375 0.025 0.025
          0.395833 0.025 0.025
          0.416667 0.025 0.025
          0.4375 0.025 0.025
          0.458333 0.025 0.025
          0.479167 0.025 0.025
          0.5 0.025 0.025
          0 0.05 0.025
          0.0208333 0.05 0.025
          0.0416667 0.05 0.025
          0.0625 0.05 0.025
          0.0833333 0.05 0.025
          0.104167 0.05 0.025
          0.125 0.05 0.025
          0.145833 0.05 0.025
          0.166667 0.05 0.025
          0.1875 0.05 0.025
          0.208333 0.05 0.025
          0.229167 0.05 0.025
          0.25 0.05 0.025
          0.270833 0.05 0.025
          0.291667 0.05 0.025
          0.3125 0.05 0.025
          0.333333 0.05 0.025
          0.354167 0.05 0.025
          0.375 0.05 0.025
          0.395833 0.05 0.025
          0.416667 0.05 0.025
          0.4375 0.05 0.025
          0.458333 0.05 0.025
          0.479167 0.05 0.025
          0.5 0.05 0.025
          0 0.075 0.025
          0.0208333 0.075 0.025
          0.0416667 0.075 0.025
          0.0625 0.075 0.025
          0.0833333 0.075 0.025
          0.104167 0.075 0.025
          0.125 0.075 0.025
          0.145833 0.075 0.025
          0.166667 0.075 0.025
          0.1875 0.075 0.025
          0.208333 0.075 0.025
          0.229167 0.075 0.025
          0.25 0.075 0.025
          0.270833 0.075 0.025
          0.291667 0.075 0.025
          0.3125 0.075 0.025
          0.333333 0.075 0.025
          0.354167 0.075 0.025
          0.375 0.075 0.025
          0.395833 0.075 0.025
          0.416667 0.075 0.025
          0.4375 0.075 0.025
          0.458333 0.075 0.025
          0.479167 0.075 0.025
          0.5 0.075 0.025
          0 0.1 0.025
          0.0208333 0.1 0.025
          0.0416667 0.1 0.025
          0.0625 0.1 0.025
          0.0833333 0.1 0.025
          0.104167 0.1 0.025
          0.125 0.1 0.025
          0.145833 0.1 0.025
          0.166667 0.1 0.025
          0.1875 0.1 0.025
          0.208333 0.1 0.025
          0.229167 0.1 0.025
          0.25 0.1 0.025
          0.270833 0.1 0.025
          0.291667 0.1 0.025
          0.3125 0.1 0.025
          0.333333 0.1 0.025
          0.354167 0.1 0.025
          0.375 0.1 0.025
          0.395833 0.1 0.025
          0.416667 0.1 0.025
          0.4375 0.1 0.025
          0.458333 0.1 0.025
          0.479167 0.1 0.025
          0.5 0.1 0.025
          0 0 0.05
          0.0208333 0 0.05
          0.0416667 0 0.05
          0.0625 0 0.05
          0.0833333 0 0.05
          0.104167 0 0.05
          0.125 0 0.05
          0.145833 0 0.05
          0.166667 0 0.05
          0.1875 0 0.05
          0.208333 0 0.05
          0.229167 0 0.05
          0.25 0 0.05
          0.270833 0 0.05
          0.291667 0 0.05
          0.3125 0 0.05
          0.333333 0 0.05
          0.354167 0 0.05
          0.375 0 0.05
          0.395833 0 0.05
          0.416667 0 0.05
          0.4375 0 0.05
          0.458333 0 0.05
          0.479167 0 0.05
          0.5 0 0.05
          0 0.025 0.05
          0.0208333 0.025 0.05
          0.0416667 0.025 0.05
          0.0625 0.025 0.05
          0.0833333 0.025 0.05
          0.104167 0.025 0.05
          0.125 0.025 0.05
          0.145833 0.025 0.05
          0.166667 0.025 0.05
          0.1875 0.025 0.05
          0.208333 0.025 0.05
          0.229167 0.025 0.05
          0.25 0.025 0.05
          0.270833 0.025 0.05
          0.291667 0.025 0.05
          0.3125 0.025 0.05
          0.333333 0.025 0.05
          0.354167 0.025 0.05
          0.375 0.025 0.05
          0.395833 0.025 0.05
          0.416667 0.025 0.05
          0.4375 0.025 0.05
          0.458333 0.025 0.05
          0.479167 0.025 0.05
          0.5 0.025 0.05
          0 0.05 0.05
          0.0208333 0.05 0.05
          0.0416667 0.05 0.05
          0.0625 0.05 0.05
          0.0833333 0.05 0.05
          0.104167 0.05 0.05
          0.125 0.05 0.05
          0.145833 0.05 0.05
          0.166667 0.05 0.05
          0.1875 0.05 0.05
          0.208333 0.05 0.05
          0.229167 0.05 0.05
          0.25 0.05 0.05
          0.270833 0.05 0.05
          0.291667 0.05 0.05
          0.3125 0.05 0.05
          0.333333 0.05 0.05
          0.354167 0.05 0.05
          0.375 0.05 0.05
          0.395833 0.05 0.05
          0.416667 0.05 0.05
          0.4375 0.05 0.05
          0.458333 0.05 0.05
          0.479167 0.05 0.05
          0.5 0.05 0.05
          0 0.075 0.05
          0.0208333 0.075 0.05
          0.0416667 0.075 0.05
          0.0625 0.075 0.05
          0.0833333 0.075 0.05
          0.104167 0.075 0.05
          0.125 0.075 0.05
          0.145833 0.075 0.05
          0.166667 0.075 0.05
          0.1875 0.075 0.05
          0.208333 0.075 0.05
          0.229167 0.075 0.05
          0.25 0.075 0.05
          0.270833 0.075 0.05
          0.291667 0.075 0.05
          0.3125 0.075 0.05
          0.333333 0.075 0.05
          0.354167 0.075 0.05
          0.375 0.075 0.05
          0.395833 0.075 0.05
          0.416667 0.075 0.05
          0.4375 0.075 0.05
          0.458333 0.075 0.05
          0.479167 0.075 0.05
          0.5 0.075 0.05
          0 0.1 0.05
          0.0208333 0.1 0.05
          0.0416667 0.1 0.05
          0.0625 0.1 0.05
          0.0833333 0.1 0.05
          0.104167 0.1 0.05
          0.125 0.1 0.05
          0.145833 0.1 0.05
          0.166667 0.1 0.05
          0.1875 0.1 0.05
          0.208333 0.1 0.05
          0.229167 0.1 0.05
          0.25 0.1 0.05
          0.270833 0.1 0.05
          0.291667 0.1 0.05
          0.3125 0.1 0.05
          0.333333 0.1 0.05
          0.354167 0.1 0.05
          0.375 0.1 0.05
          0.395833 0.1 0.05
          0.416667 0.1 0.05
          0.4375 0.1 0.05
          0.458333 0.1 0.05
          0.479167 0.1 0.05
          0.5 0.1 0.05
          0 0 0.075
          0.0208333 0 0.075
          0.0416667 0 0.075
          0.0625 0 0.075
          0.0833333 0 0.075
          0.104167 0 0.075
          0.125 0 0.075
          0.145833 0 0.075
          0.166667 0 0.075
          0.1875 0 0.075
          0.208333 0 0.075
          0.229167 0 0.075
          0.25 0 0.075
          0.270833 0 0.075
          0.291667 0 0.075
          0.3125 0 0.075
          0.333333 0 0.075
          0.354167 0 0.075
          0.375 0 0.075
          0.395833 0 0.075
          0.416667 0 0.075
          0.4375 0 0.075
          0.458333 0 0.075
          0.479167 0 0.075
          0.5 0 0.075
          0 0.025 0.075
          0.0208333 0.025 0.075
          0.0416667 0.025 0.075
          0.0625 0.025 0.075
          0.0833333 0.025 0.075
          0.104167 0.025 0.075
          0.125 0.025 0.075
          0.145833 0.025 0.075
          0.166667 0.025 0.075
          0.1875 0.025 0.075
          0.208333 0.025 0.075
          0.229167 0.025 0.075
          0.25 0.025 0.075
          0.270833 0.025 0.075
          0.291667 0.025 0.075
          0.3125 0.025 0.075
          0.333333 0.025 0.075
          0.354167 0.025 0.075
          0.375 0.025 0.075
          0.395833 0.025 0.075
          0.416667 0.025 0.075
          0.4375 0.025 0.075
          0.458333 0.025 0.075
          0.479167 0.025 0.075
          0.5 0.025 0.075
          0 0.05 0.075
          0.0208333 0.05 0.075
          0.0416667 0.05 0.075
          0.0625 0.05 0.075
          0.0833333 0.05 0.075
          0.104167 0.05 0.075
          0.125 0.05 0.075
          0.145833 0.05 0.075
          0.166667 0.05 0.075
          0.1875 0.05 0.075
          0.208333 0.05 0.075
          0.229167 0.05 0.075
          0.25 0.05 0.075
          0.270833 0.05 0.075
          0.291667 0.05 0.075
          0.3125 0.05 0.075
          0.333333 0.05 0.075
          0.354167 0.05 0.075
          0.375 0.05 0.075
          0.395833 0.05 0.075
          0.416667 0.05 0.075
          0.4375 0.05 0.075
          0.458333 0.05 0.075
          0.479167 0.05 0.075
          0.5 0.05 0.075
          0 0.075 0.075
          0.0208333 0.075 0.075
          0.0416667 0.075 0.075
          0.0625 0.075 0.075
          0.0833333 0.075 0.075
          0.104167 0.075 0.075
          0.125 0.075 0.075
          0.145833 0.075 0.075
          0.166667 0.075 0.075
          0.1875 0.075 0.075
          0.208333 0.075 0.075
          0.229167 0.075 0.075
          0.25 0.075 0.075
          0.270833 0.075 0.075
          0.291667 0.075 0.075
          0.3125 0.075 0.075
          0.333333 0.075 0.075
          0.354167 0.075 0.075
          0.375 0.075 0.075
          0.395833 0.075 0.075
          0.416667 0.075 0.075
          0.4375 0.075 0.075
          0.458333 0.075 0.075
          0.479167 0.075 0.075
          0.5 0.075 0.075
          0 0.1 0.075
          0.0208333 0.1 0.075
          0.0416667 0.1 0.075
          0.0625 0.1 0.075
          0.0833333 0.1 0.075
          0.104167 0.1 0.075
          0.125 0.1 0.075
          0.145833 0.1 0.075
          0.166667 0.1 0.075
          0.1875 0.1 0.075
          0.208333 0.1 0.075
          0.229167 0.1 0.075
          0.25 0.1 0.075
          0.270833 0.1 0.075
          0.291667 0.1 0.075
          0.3125 0.1 0.075
          0.333333 0.1 0.075
          0.354167 0.1 0.075
          0.375 0.1 0.075
          0.395833 0.1 0.075
          0.416667 0.1 0.075
          0.4375 0.1 0.075
          0.458333 0.1 0.075
          0.479167 0.1 0.075
          0.5 0.1 0.075
          0 0 0.1
          0.0208333 0 0.1
          0.0416667 0 0.1
          0.0625 0 0.1
          0.0833333 0 0.1
          0.104167 0 0.1
          0.125 0 0.1
          0.145833 0 0.1
          0.166667 0 0.1
          0.1875 0 0.1
          0.208333 0 0.1
          0.229167 0 0.1
          0.25 0 0.1
          0.270833 0 0.1
          0.291667 0 0.1
          0.3125 0 0.1
          0.333333 0 0.1
          0.354167 0 0.1
          0.375 0 0.1
          0.395833 0 0.1
          0.416667 0 0.1
          0.4375 0 0.1
          0.458333 0 0.1
          0.479167 0 0.1
          0.5 0 0.1
          0 0.025 0.1
          0.0208333 0.025 0.1
          0.0416667 0.025 0.1
          0.0625 0.025 0.1
          0.0833333 0.025 0.1
          0.104167 0.025 0.1
          0.125 0.025 0.1
          0.145833 0.025 0.1
          0.166667 0.025 0.1
          0.1875 0.025 0.1
          0.208333 0.025 0.1
          0.229167 0.025 0.1
          0.25 0.025 0.1
          0.270833 0.025 0.1
          0.291667 0.025 0.1
          0.3125 0.025 0.1
          0.333333 0.025 0.1
          0.354167 0.025 0.1
          0.375 0.025 0.1
          0.395833 0.025 0.1
          0.416667 0.025 0.1
          0.4375 0.025 0.1
          0.458333 0.025 0.1
          0.479167 0.025 0.1
          0.5 0.025 0.1
          0 0.05 0.1
          0.0208333 0.05 0.1
          0.0416667 0.05 0.1
          0.0625 0.05 0.1
          0.0833333 0.05 0.1
          0.104167 0.05 0.1
          0.125 0.05 0.1
          0.145833 0.05 0.1
          0.166667 0.05 0.1
          0.1875 0.05 0.1
          0.208333 0.05 0.1
          0.229167 0.05 0.1
          0.25 0.05 0.1
          0.270833 0.05 0.1
          0.291667 0.05 0.1
          0.3125 0.05 0.1
          0.333333 0.05 0.1
          0.354167 0.05 0.1
          0.375 0.05 0.1
          0.395833 0.05 0.1
          0.416667 0.05 0.1
          0.4375 0.05 0.1
          0.458333 0.05 0.1
          0.479167 0.05 0.1
          0.5 0.05 0.1
          0 0.075 0.1
          0.0208333 0.075 0.1
          0.0416667 0.075 0.1
          0.0625 0.075 0.1
          0.0833333 0.075 0.1
          0.104167 0.075 0.1
          0.125 0.075 0.1
          0.145833 0.075 0.1
          0.166667 0.075 0.1
          0.1875 0.075 0.1
          0.208333 0.075 0.1
          0.229167 0.075 0.1
          0.25 0.075 0.1
          0.270833 0.075 0.1
          0.291667 0.075 0.1
          0.3125 0.075 0.1
          0.333333 0.075 0.1
          0.354167 0.075 0.1
          0.375 0.075 0.1
          0.395833 0.075 0.1
          0.416667 0.075 0.1
          0.4375 0.075 0.1
          0.458333 0.075 0.1
          0.479167 0.075 0.1
          0.5 0.075 0.1
          0 0.1 0.1
          0.0208333 0.1 0.1
          0.0416667 0.1 0.1
          0.0625 0.1 0.1
          0.0833333 0.1 0.1
          0.104167 0.1 0.1
          0.125 0.1 0.1
          0.145833 0.1 0.1
          0.166667 0.1 0.1
          0.1875 0.1 0.1
          0.208333 0.1 0.1
          0.229167 0.1 0.1
          0.25 0.1 0.1
          0.270833 0.1 0.1
          0.291667 0.1 0.1
          0.3125 0.1 0.1
          0.333333 0.1 0.1
          0.354167 0.1 0.1
          0.375 0.1 0.1
          0.395833 0.1 0.1
          0.416667 0.1 0.1
          0.4375 0.1 0.1
          0.458333 0.1 0.1
          0.479167 0.1 0.1
          0.5 0.1 0.1
        </DataArray>
      </Points>
      <Cells>
        <DataArray type="Int32" Name="connectivity" format="ascii">
          1 125 150 0
          1 0 150 26
          0 26 25 150
          150 26 151 1
          150 151 125 1
          151 125 1 126
          1 127 2 152
          1 2 26 152
          2 26 152 27
          152 26 1 151
          152 151 1 127
          151 127 126 1
          3 127 152 2
          3 2 152 28
          2 28 27 152
          152 28 153 3
          152 153 127 3
          153 127 3 128
          3 129 4 154
          3 4 28 154
          4 28 154 29
          154 28 3 153
          154 153 3 129
          153 129 128 3
          5 129 154 4
          5 4 154 30
          4 30 29 154
          154 30 155 5
          154 155 129 5
          155 129 5 130
          5 131 6 156
          5 6 30 156
          6 30 156 31
          156 30 5 155
          156 155 5 131
          155 131 130 5
          7 131 156 6
          7 6 156 32
          6 32 31 156
          156 32 157 7
          156 157 131 7
          157 131 7 132
          7 133 8 158
          7 8 32 158
          8 32 158 33
          158 32 7 157
          158 157 7 133
          157 133 132 7
          9 133 158 8
          9 8 158 34
          8 34 33 158
          158 34 159 9
          158 159 133 9
          159 133 9 134
          9 135 10 160
          9 10 34 160
          10 34 160 35
          160 34 9 159
          160 159 9 135
          159 135 134 9
          11 135 160 10
          11 10 160 36
          10 36 35 160
          160 36 161 11
          160 161 135 11
          161 135 11 136
          11 137 12 162
          11 12 36 162
          12 36 162 37
          162 36 11 161
          162 161 11 137
          161 137 136 11
          13 137 162 12
          13 12 162 38
          12 38 37 162
          162 38 163 13
          162 163 137 13
          163 137 13 138
          13 139 14 164
          13 14 38 164